20
#src_path:/home/uccawkj/Work/SnPbO/5fara_KLMC_Sn_USE_PbO_BulkOO_EXP_ONSITE/N10/AIMS_REFINE/Aims_B1550/geometry.in.next_step
  O    2.846475   -0.035271   -0.035577
  O   -1.185355    0.738596   -1.710940
  O    0.754438    2.410920   -0.058211
  O    1.894767    1.292547    2.512377
  O    0.569160   -1.622714    1.432318
  O    3.402828    2.564269    0.629929
  O   -1.181830    0.424220    1.413308
  O   -1.261476   -1.459659   -3.345821
  O    0.907029   -1.707183   -1.688545
  O   -1.959301   -2.033060   -0.773200
 Pb   -0.655553   -3.079230   -2.104360
 Pb   -2.778843   -0.597294   -2.127235
 Pb    2.100986   -2.012052    0.028913
 Pb    0.339131   -0.086482   -2.951733
 Pb    2.477622    1.756920   -1.129424
 Pb   -1.315083    1.983364   -0.007465
 Pb    3.792710    0.758848    1.688096
 Pb    0.326927   -0.043586    2.910791
 Pb    1.670318    3.241280    1.664892
 Pb   -1.599654   -1.707108    1.267945
